Program Version,EnergyPlus, Version 26.1.0-6f2e40d102, YMD=2026.05.25 21:20
1,5,Environment Title[],Latitude[deg],Longitude[deg],Time Zone[],Elevation[m]
2,8,Day of Simulation[],Month[],Day of Month[],DST Indicator[1=yes 0=no],Hour[],StartMinute[],EndMinute[],DayType
3,5,Cumulative Day of Simulation[],Month[],Day of Month[],DST Indicator[1=yes 0=no],DayType  ! When Daily Report Variables Requested
4,2,Cumulative Days of Simulation[],Month[]  ! When Monthly Report Variables Requested
5,1,Cumulative Days of Simulation[] ! When Run Period Report Variables Requested
6,1,Calendar Year of Simulation[] ! When Annual Report Variables Requested
7,1,Environment,Site Outdoor Air Drybulb Temperature [C] !Hourly
8,1,Environment,Site Total Sky Cover [] !Hourly
9,1,Environment,Site Opaque Sky Cover [] !Hourly
10,7,Environment,Site Daylight Saving Time Status [] !Daily [Value,Min,Hour,Minute,Max,Hour,Minute]
11,7,Environment,Site Day Type Index [] !Daily [Value,Min,Hour,Minute,Max,Hour,Minute]
49,1,ZONE ONE,Zone Total Internal Latent Gain Energy [J] !Hourly
50,9,TEST 352A,Other Equipment Total Heating Energy [J] !Monthly [Value,Min,Day,Hour,Minute,Max,Day,Hour,Minute]
51,9,TEST 352 MINUS,Other Equipment Total Heating Energy [J] !Monthly [Value,Min,Day,Hour,Minute,Max,Day,Hour,Minute]
52,9,ZONE ONE,Zone Other Equipment Total Heating Energy [J] !Monthly [Value,Min,Day,Hour,Minute,Max,Day,Hour,Minute]
53,1,ZONE ONE,Zone Opaque Surface Inside Faces Conduction Rate [W] !Hourly
54,1,ZONE ONE,Zone Opaque Surface Inside Faces Conduction Heat Gain Rate [W] !Hourly
55,1,ZONE ONE,Zone Opaque Surface Inside Faces Conduction Heat Loss Rate [W] !Hourly
56,1,ZONE ONE,Zone Opaque Surface Outside Faces Conduction Rate [W] !Hourly
57,1,ZONE ONE,Zone Opaque Surface Outside Faces Conduction Heat Gain Rate [W] !Hourly
58,1,ZONE ONE,Zone Opaque Surface Outside Faces Conduction Heat Loss Rate [W] !Hourly
59,1,ZONE ONE,Zone Opaque Surface Inside Faces Conduction Heat Gain Energy [J] !Hourly
60,1,ZONE ONE,Zone Opaque Surface Inside Faces Conduction Heat Loss Energy [J] !Hourly
61,1,ZONE ONE,Zone Opaque Surface Outside Faces Conduction Heat Gain Energy [J] !Hourly
62,1,ZONE ONE,Zone Opaque Surface Outside Faces Conduction Heat Loss Energy [J] !Hourly
63,7,ZN001:WALL001,Surface Inside Face Temperature [C] !Daily [Value,Min,Hour,Minute,Max,Hour,Minute]
64,7,ZN001:WALL001,Surface Outside Face Temperature [C] !Daily [Value,Min,Hour,Minute,Max,Hour,Minute]
65,7,ZN001:WALL001,Surface Inside Face Convection Heat Transfer Coefficient [W/m2-K] !Daily [Value,Min,Hour,Minute,Max,Hour,Minute]
66,7,ZN001:WALL001,Surface Outside Face Convection Heat Transfer Coefficient [W/m2-K] !Daily [Value,Min,Hour,Minute,Max,Hour,Minute]
67,1,ZN001:WALL001,Surface Inside Face Conduction Heat Transfer Rate [W] !Hourly
68,1,ZN001:WALL001,Surface Inside Face Conduction Heat Gain Rate [W] !Hourly
69,1,ZN001:WALL001,Surface Inside Face Conduction Heat Loss Rate [W] !Hourly
70,1,ZN001:WALL001,Surface Inside Face Conduction Heat Transfer Rate per Area [W/m2] !Hourly
71,1,ZN001:WALL001,Surface Inside Face Conduction Heat Transfer Energy [J] !Hourly
72,1,ZN001:WALL001,Surface Outside Face Conduction Heat Transfer Rate [W] !Hourly
73,1,ZN001:WALL001,Surface Outside Face Conduction Heat Gain Rate [W] !Hourly
74,1,ZN001:WALL001,Surface Outside Face Conduction Heat Loss Rate [W] !Hourly
75,1,ZN001:WALL001,Surface Outside Face Conduction Heat Transfer Rate per Area [W/m2] !Hourly
76,1,ZN001:WALL001,Surface Outside Face Conduction Heat Transfer Energy [J] !Hourly
77,1,ZN001:WALL001,Surface Average Face Conduction Heat Transfer Rate [W] !Hourly
78,1,ZN001:WALL001,Surface Average Face Conduction Heat Gain Rate [W] !Hourly
79,1,ZN001:WALL001,Surface Average Face Conduction Heat Loss Rate [W] !Hourly
80,1,ZN001:WALL001,Surface Average Face Conduction Heat Transfer Rate per Area [W/m2] !Hourly
81,1,ZN001:WALL001,Surface Average Face Conduction Heat Transfer Energy [J] !Hourly
82,1,ZN001:WALL001,Surface Heat Storage Rate [W] !Hourly
83,1,ZN001:WALL001,Surface Heat Storage Gain Rate [W] !Hourly
84,1,ZN001:WALL001,Surface Heat Storage Loss Rate [W] !Hourly
85,1,ZN001:WALL001,Surface Heat Storage Rate per Area [W/m2] !Hourly
86,1,ZN001:WALL001,Surface Heat Storage Energy [J] !Hourly
87,7,ZN001:WALL002,Surface Inside Face Temperature [C] !Daily [Value,Min,Hour,Minute,Max,Hour,Minute]
88,7,ZN001:WALL002,Surface Outside Face Temperature [C] !Daily [Value,Min,Hour,Minute,Max,Hour,Minute]
89,7,ZN001:WALL002,Surface Inside Face Convection Heat Transfer Coefficient [W/m2-K] !Daily [Value,Min,Hour,Minute,Max,Hour,Minute]
90,7,ZN001:WALL002,Surface Outside Face Convection Heat Transfer Coefficient [W/m2-K] !Daily [Value,Min,Hour,Minute,Max,Hour,Minute]
91,1,ZN001:WALL002,Surface Inside Face Conduction Heat Transfer Rate [W] !Hourly
92,1,ZN001:WALL002,Surface Inside Face Conduction Heat Gain Rate [W] !Hourly
93,1,ZN001:WALL002,Surface Inside Face Conduction Heat Loss Rate [W] !Hourly
94,1,ZN001:WALL002,Surface Inside Face Conduction Heat Transfer Rate per Area [W/m2] !Hourly
95,1,ZN001:WALL002,Surface Inside Face Conduction Heat Transfer Energy [J] !Hourly
96,1,ZN001:WALL002,Surface Outside Face Conduction Heat Transfer Rate [W] !Hourly
97,1,ZN001:WALL002,Surface Outside Face Conduction Heat Gain Rate [W] !Hourly
98,1,ZN001:WALL002,Surface Outside Face Conduction Heat Loss Rate [W] !Hourly
99,1,ZN001:WALL002,Surface Outside Face Conduction Heat Transfer Rate per Area [W/m2] !Hourly
100,1,ZN001:WALL002,Surface Outside Face Conduction Heat Transfer Energy [J] !Hourly
101,1,ZN001:WALL002,Surface Average Face Conduction Heat Transfer Rate [W] !Hourly
102,1,ZN001:WALL002,Surface Average Face Conduction Heat Gain Rate [W] !Hourly
103,1,ZN001:WALL002,Surface Average Face Conduction Heat Loss Rate [W] !Hourly
104,1,ZN001:WALL002,Surface Average Face Conduction Heat Transfer Rate per Area [W/m2] !Hourly
105,1,ZN001:WALL002,Surface Average Face Conduction Heat Transfer Energy [J] !Hourly
106,1,ZN001:WALL002,Surface Heat Storage Rate [W] !Hourly
107,1,ZN001:WALL002,Surface Heat Storage Gain Rate [W] !Hourly
108,1,ZN001:WALL002,Surface Heat Storage Loss Rate [W] !Hourly
109,1,ZN001:WALL002,Surface Heat Storage Rate per Area [W/m2] !Hourly
110,1,ZN001:WALL002,Surface Heat Storage Energy [J] !Hourly
111,7,ZN001:WALL003,Surface Inside Face Temperature [C] !Daily [Value,Min,Hour,Minute,Max,Hour,Minute]
112,7,ZN001:WALL003,Surface Outside Face Temperature [C] !Daily [Value,Min,Hour,Minute,Max,Hour,Minute]
113,7,ZN001:WALL003,Surface Inside Face Convection Heat Transfer Coefficient [W/m2-K] !Daily [Value,Min,Hour,Minute,Max,Hour,Minute]
114,7,ZN001:WALL003,Surface Outside Face Convection Heat Transfer Coefficient [W/m2-K] !Daily [Value,Min,Hour,Minute,Max,Hour,Minute]
115,1,ZN001:WALL003,Surface Inside Face Conduction Heat Transfer Rate [W] !Hourly
116,1,ZN001:WALL003,Surface Inside Face Conduction Heat Gain Rate [W] !Hourly
117,1,ZN001:WALL003,Surface Inside Face Conduction Heat Loss Rate [W] !Hourly
118,1,ZN001:WALL003,Surface Inside Face Conduction Heat Transfer Rate per Area [W/m2] !Hourly
119,1,ZN001:WALL003,Surface Inside Face Conduction Heat Transfer Energy [J] !Hourly
120,1,ZN001:WALL003,Surface Outside Face Conduction Heat Transfer Rate [W] !Hourly
121,1,ZN001:WALL003,Surface Outside Face Conduction Heat Gain Rate [W] !Hourly
122,1,ZN001:WALL003,Surface Outside Face Conduction Heat Loss Rate [W] !Hourly
123,1,ZN001:WALL003,Surface Outside Face Conduction Heat Transfer Rate per Area [W/m2] !Hourly
124,1,ZN001:WALL003,Surface Outside Face Conduction Heat Transfer Energy [J] !Hourly
125,1,ZN001:WALL003,Surface Average Face Conduction Heat Transfer Rate [W] !Hourly
126,1,ZN001:WALL003,Surface Average Face Conduction Heat Gain Rate [W] !Hourly
127,1,ZN001:WALL003,Surface Average Face Conduction Heat Loss Rate [W] !Hourly
128,1,ZN001:WALL003,Surface Average Face Conduction Heat Transfer Rate per Area [W/m2] !Hourly
129,1,ZN001:WALL003,Surface Average Face Conduction Heat Transfer Energy [J] !Hourly
130,1,ZN001:WALL003,Surface Heat Storage Rate [W] !Hourly
131,1,ZN001:WALL003,Surface Heat Storage Gain Rate [W] !Hourly
132,1,ZN001:WALL003,Surface Heat Storage Loss Rate [W] !Hourly
133,1,ZN001:WALL003,Surface Heat Storage Rate per Area [W/m2] !Hourly
134,1,ZN001:WALL003,Surface Heat Storage Energy [J] !Hourly
135,7,ZN001:WALL004,Surface Inside Face Temperature [C] !Daily [Value,Min,Hour,Minute,Max,Hour,Minute]
136,7,ZN001:WALL004,Surface Outside Face Temperature [C] !Daily [Value,Min,Hour,Minute,Max,Hour,Minute]
137,7,ZN001:WALL004,Surface Inside Face Convection Heat Transfer Coefficient [W/m2-K] !Daily [Value,Min,Hour,Minute,Max,Hour,Minute]
138,7,ZN001:WALL004,Surface Outside Face Convection Heat Transfer Coefficient [W/m2-K] !Daily [Value,Min,Hour,Minute,Max,Hour,Minute]
139,1,ZN001:WALL004,Surface Inside Face Conduction Heat Transfer Rate [W] !Hourly
140,1,ZN001:WALL004,Surface Inside Face Conduction Heat Gain Rate [W] !Hourly
141,1,ZN001:WALL004,Surface Inside Face Conduction Heat Loss Rate [W] !Hourly
142,1,ZN001:WALL004,Surface Inside Face Conduction Heat Transfer Rate per Area [W/m2] !Hourly
143,1,ZN001:WALL004,Surface Inside Face Conduction Heat Transfer Energy [J] !Hourly
144,1,ZN001:WALL004,Surface Outside Face Conduction Heat Transfer Rate [W] !Hourly
145,1,ZN001:WALL004,Surface Outside Face Conduction Heat Gain Rate [W] !Hourly
146,1,ZN001:WALL004,Surface Outside Face Conduction Heat Loss Rate [W] !Hourly
147,1,ZN001:WALL004,Surface Outside Face Conduction Heat Transfer Rate per Area [W/m2] !Hourly
148,1,ZN001:WALL004,Surface Outside Face Conduction Heat Transfer Energy [J] !Hourly
149,1,ZN001:WALL004,Surface Average Face Conduction Heat Transfer Rate [W] !Hourly
150,1,ZN001:WALL004,Surface Average Face Conduction Heat Gain Rate [W] !Hourly
151,1,ZN001:WALL004,Surface Average Face Conduction Heat Loss Rate [W] !Hourly
152,1,ZN001:WALL004,Surface Average Face Conduction Heat Transfer Rate per Area [W/m2] !Hourly
153,1,ZN001:WALL004,Surface Average Face Conduction Heat Transfer Energy [J] !Hourly
154,1,ZN001:WALL004,Surface Heat Storage Rate [W] !Hourly
155,1,ZN001:WALL004,Surface Heat Storage Gain Rate [W] !Hourly
156,1,ZN001:WALL004,Surface Heat Storage Loss Rate [W] !Hourly
157,1,ZN001:WALL004,Surface Heat Storage Rate per Area [W/m2] !Hourly
158,1,ZN001:WALL004,Surface Heat Storage Energy [J] !Hourly
159,7,ZN001:FLR001,Surface Inside Face Temperature [C] !Daily [Value,Min,Hour,Minute,Max,Hour,Minute]
160,7,ZN001:FLR001,Surface Outside Face Temperature [C] !Daily [Value,Min,Hour,Minute,Max,Hour,Minute]
161,7,ZN001:FLR001,Surface Inside Face Convection Heat Transfer Coefficient [W/m2-K] !Daily [Value,Min,Hour,Minute,Max,Hour,Minute]
162,7,ZN001:FLR001,Surface Outside Face Convection Heat Transfer Coefficient [W/m2-K] !Daily [Value,Min,Hour,Minute,Max,Hour,Minute]
163,1,ZN001:FLR001,Surface Inside Face Conduction Heat Transfer Rate [W] !Hourly
164,1,ZN001:FLR001,Surface Inside Face Conduction Heat Gain Rate [W] !Hourly
165,1,ZN001:FLR001,Surface Inside Face Conduction Heat Loss Rate [W] !Hourly
166,1,ZN001:FLR001,Surface Inside Face Conduction Heat Transfer Rate per Area [W/m2] !Hourly
167,1,ZN001:FLR001,Surface Inside Face Conduction Heat Transfer Energy [J] !Hourly
168,1,ZN001:FLR001,Surface Outside Face Conduction Heat Transfer Rate [W] !Hourly
169,1,ZN001:FLR001,Surface Outside Face Conduction Heat Gain Rate [W] !Hourly
170,1,ZN001:FLR001,Surface Outside Face Conduction Heat Loss Rate [W] !Hourly
171,1,ZN001:FLR001,Surface Outside Face Conduction Heat Transfer Rate per Area [W/m2] !Hourly
172,1,ZN001:FLR001,Surface Outside Face Conduction Heat Transfer Energy [J] !Hourly
173,1,ZN001:FLR001,Surface Average Face Conduction Heat Transfer Rate [W] !Hourly
174,1,ZN001:FLR001,Surface Average Face Conduction Heat Gain Rate [W] !Hourly
175,1,ZN001:FLR001,Surface Average Face Conduction Heat Loss Rate [W] !Hourly
176,1,ZN001:FLR001,Surface Average Face Conduction Heat Transfer Rate per Area [W/m2] !Hourly
177,1,ZN001:FLR001,Surface Average Face Conduction Heat Transfer Energy [J] !Hourly
178,1,ZN001:FLR001,Surface Heat Storage Rate [W] !Hourly
179,1,ZN001:FLR001,Surface Heat Storage Gain Rate [W] !Hourly
180,1,ZN001:FLR001,Surface Heat Storage Loss Rate [W] !Hourly
181,1,ZN001:FLR001,Surface Heat Storage Rate per Area [W/m2] !Hourly
182,1,ZN001:FLR001,Surface Heat Storage Energy [J] !Hourly
183,7,ZN001:ROOF001,Surface Inside Face Temperature [C] !Daily [Value,Min,Hour,Minute,Max,Hour,Minute]
184,7,ZN001:ROOF001,Surface Outside Face Temperature [C] !Daily [Value,Min,Hour,Minute,Max,Hour,Minute]
185,7,ZN001:ROOF001,Surface Inside Face Convection Heat Transfer Coefficient [W/m2-K] !Daily [Value,Min,Hour,Minute,Max,Hour,Minute]
186,7,ZN001:ROOF001,Surface Outside Face Convection Heat Transfer Coefficient [W/m2-K] !Daily [Value,Min,Hour,Minute,Max,Hour,Minute]
187,1,ZN001:ROOF001,Surface Inside Face Conduction Heat Transfer Rate [W] !Hourly
188,1,ZN001:ROOF001,Surface Inside Face Conduction Heat Gain Rate [W] !Hourly
189,1,ZN001:ROOF001,Surface Inside Face Conduction Heat Loss Rate [W] !Hourly
190,1,ZN001:ROOF001,Surface Inside Face Conduction Heat Transfer Rate per Area [W/m2] !Hourly
191,1,ZN001:ROOF001,Surface Inside Face Conduction Heat Transfer Energy [J] !Hourly
192,1,ZN001:ROOF001,Surface Outside Face Conduction Heat Transfer Rate [W] !Hourly
193,1,ZN001:ROOF001,Surface Outside Face Conduction Heat Gain Rate [W] !Hourly
194,1,ZN001:ROOF001,Surface Outside Face Conduction Heat Loss Rate [W] !Hourly
195,1,ZN001:ROOF001,Surface Outside Face Conduction Heat Transfer Rate per Area [W/m2] !Hourly
196,1,ZN001:ROOF001,Surface Outside Face Conduction Heat Transfer Energy [J] !Hourly
197,1,ZN001:ROOF001,Surface Average Face Conduction Heat Transfer Rate [W] !Hourly
198,1,ZN001:ROOF001,Surface Average Face Conduction Heat Gain Rate [W] !Hourly
199,1,ZN001:ROOF001,Surface Average Face Conduction Heat Loss Rate [W] !Hourly
200,1,ZN001:ROOF001,Surface Average Face Conduction Heat Transfer Rate per Area [W/m2] !Hourly
201,1,ZN001:ROOF001,Surface Average Face Conduction Heat Transfer Energy [J] !Hourly
202,1,ZN001:ROOF001,Surface Heat Storage Rate [W] !Hourly
203,1,ZN001:ROOF001,Surface Heat Storage Gain Rate [W] !Hourly
204,1,ZN001:ROOF001,Surface Heat Storage Loss Rate [W] !Hourly
205,1,ZN001:ROOF001,Surface Heat Storage Rate per Area [W/m2] !Hourly
206,1,ZN001:ROOF001,Surface Heat Storage Energy [J] !Hourly
207,1,ZONE ONE,Zone Mean Air Temperature [C] !Hourly
208,1,ZONE ONE,Zone Wetbulb Globe Temperature [C] !Hourly
209,1,ZONE ONE,Zone Operative Temperature [C] !Hourly
210,1,ZONE ONE,Zone Air Heat Balance Surface Convection Rate [W] !Hourly
211,1,ZONE ONE,Zone Air Heat Balance Air Energy Storage Rate [W] !Hourly
212,1,ZONE ONE,Zone Mean Radiant Temperature [C] !Hourly
End of Data Dictionary
1,DENVER CENTENNIAL  GOLDEN   N ANN HTG 99% CONDNS DB,  39.74,-105.18,  -7.00,1829.00
2,1,12,21, 0, 1, 0.00,60.00,WinterDesignDay
7,-15.5
8,9.375
9,8.75
49,0.0
53,-0.10776373836151265
54,0.0
55,0.10776373836151265
56,1.2714374699701771
57,1.2714374699701771
58,0.0
59,0.0
60,387.94945810144554
61,4577.174891892638
62,0.0
67,20.70387859277773
68,20.70387859277773
69,0.0
70,0.29713959260145817
71,74533.96293399982
72,-20.70387859277773
73,0.0
74,20.70387859277773
75,-0.29713959260145817
76,-74533.96293399982
77,20.70387859277773
78,20.70387859277773
79,0.0
80,0.29713959260145817
81,74533.96293399982
82,0.0
83,0.0
84,0.0
85,0.0
86,0.0
91,20.70387859277773
92,20.70387859277773
93,0.0
94,0.29713959260145817
95,74533.96293399982
96,-20.70387859277773
97,0.0
98,20.70387859277773
99,-0.29713959260145817
100,-74533.96293399982
101,20.70387859277773
102,20.70387859277773
103,0.0
104,0.29713959260145817
105,74533.96293399982
106,0.0
107,0.0
108,0.0
109,0.0
110,0.0
115,21.981373148665455
116,21.981373148665455
117,0.0
118,0.31547404187800465
119,79132.94333519564
120,-21.981373148665455
121,0.0
122,21.981373148665455
123,-0.31547404187800465
124,-79132.94333519564
125,21.981373148665455
126,21.981373148665455
127,0.0
128,0.31547404187800465
129,79132.94333519564
130,0.0
131,0.0
132,0.0
133,0.0
134,0.0
139,21.981373148665455
140,21.981373148665455
141,0.0
142,0.31547404187800465
143,79132.94333519564
144,-21.981373148665455
145,0.0
146,21.981373148665455
147,-0.31547404187800465
148,-79132.94333519564
149,21.981373148665455
150,21.981373148665455
151,0.0
152,0.31547404187800465
153,79132.94333519564
154,0.0
155,0.0
156,0.0
157,0.0
158,0.0
163,0.67471321349027
164,0.67471321349027
165,0.0
166,0.0029050210347918437
167,2428.9675685649727
168,0.48896051811839897
169,0.48896051811839897
170,0.0
171,0.002105250885733767
172,1760.2578652262364
173,0.09287634768593558
174,0.09287634768593558
175,0.0
176,0.0003998850745290383
177,334.35485166936803
178,-1.163673731608669
179,0.0
180,1.163673731608669
181,-0.005010271920525611
182,-4189.225433791209
187,-86.15298043473815
188,0.0
189,86.15298043473815
190,-0.3709371854128267
191,-310150.7295650573
192,86.15298043473815
193,86.15298043473815
194,0.0
195,0.3709371854128267
196,310150.7295650573
197,-86.15298043473815
198,0.0
199,86.15298043473815
200,-0.3709371854128267
201,-310150.7295650573
202,0.0
203,0.0
204,0.0
205,0.0
206,0.0
207,-18.21135488729773
208,-18.21094577465869
209,-18.210000694034385
210,-0.02692316016484586
211,-0.026976810901115346
212,-18.20864650077104
2,1,12,21, 0, 2, 0.00,60.00,WinterDesignDay
7,-15.5
8,9.625
9,8.625
49,0.0
53,-0.10606129038170309
54,0.0
55,0.10606129038170309
56,1.25133433761631
57,1.25133433761631
58,0.0
59,0.0
60,381.8206453741311
61,4504.803615418716
62,0.0
67,20.706116335116363
68,20.706116335116363
69,0.0
70,0.2971717084122165
71,74542.01880641891
72,-20.706116335116363
73,0.0
74,20.706116335116363
75,-0.2971717084122165
76,-74542.01880641891
77,20.706116335116363
78,20.706116335116363
79,0.0
80,0.2971717084122165
81,74542.01880641891
82,0.0
83,0.0
84,0.0
85,0.0
86,0.0
91,20.706116335116363
92,20.706116335116363
93,0.0
94,0.2971717084122165
95,74542.01880641891
96,-20.706116335116363
97,0.0
98,20.706116335116363
99,-0.2971717084122165
100,-74542.01880641891
101,20.706116335116363
102,20.706116335116363
103,0.0
104,0.2971717084122165
105,74542.01880641891
106,0.0
107,0.0
108,0.0
109,0.0
110,0.0
115,21.98361312083449
116,21.98361312083449
117,0.0
118,0.3155061896910225
119,79141.00723500416
120,-21.98361312083449
121,0.0
122,21.98361312083449
123,-0.3155061896910225
124,-79141.00723500416
125,21.98361312083449
126,21.98361312083449
127,0.0
128,0.3155061896910225
129,79141.00723500416
130,0.0
131,0.0
132,0.0
133,0.0
134,0.0
139,21.98361312083449
140,21.98361312083449
141,0.0
142,0.3155061896910225
143,79141.00723500416
144,-21.98361312083449
145,0.0
146,21.98361312083449
147,-0.3155061896910225
148,-79141.00723500416
149,21.98361312083449
150,21.98361312083449
151,0.0
152,0.3155061896910225
153,79141.00723500416
154,0.0
155,0.0
156,0.0
157,0.0
158,0.0
163,0.6640442553375988
164,0.6640442553375988
165,0.0
166,0.0028590851508738524
167,2390.5593192153556
168,0.48122879189700424
169,0.48122879189700424
170,0.0
171,0.0020719614423683197
172,1732.4236508292151
173,0.09140773172029729
174,0.09140773172029729
175,0.0
176,0.00039356185425276635
177,329.0678341930702
178,-1.145273047234603
179,0.0
180,1.145273047234603
181,-0.004931046593242172
182,-4122.982970044572
187,-86.14956445762101
188,0.0
189,86.14956445762101
190,-0.370922477704157
191,-310138.43204743566
192,86.14956445762101
193,86.14956445762101
194,0.0
195,0.370922477704157
196,310138.43204743566
197,-86.14956445762101
198,0.0
199,86.14956445762101
200,-0.370922477704157
201,-310138.43204743566
202,0.0
203,0.0
204,0.0
205,0.0
206,0.0
207,-18.21143607244629
208,-18.211026876183094
209,-18.21008294046141
210,-0.02649793392752864
211,-0.026550738489887087
212,-18.208729808476537
2,1,12,21, 0, 3, 0.00,60.00,WinterDesignDay
7,-15.5
8,9.375
9,8.375
49,0.0
53,-0.104385706858384
54,0.0
55,0.104385706858384
56,1.2315490039821952
57,1.2315490039821952
58,0.0
59,0.0
60,375.7885446901824
61,4433.576414335903
62,0.0
67,20.70831870619535
68,20.70831870619535
69,0.0
70,0.2972033165788812
71,74549.94734230325
72,-20.70831870619535
73,0.0
74,20.70831870619535
75,-0.2972033165788812
76,-74549.94734230325
77,20.70831870619535
78,20.70831870619535
79,0.0
80,0.2972033165788812
81,74549.94734230325
82,0.0
83,0.0
84,0.0
85,0.0
86,0.0
91,20.70831870619535
92,20.70831870619535
93,0.0
94,0.2972033165788812
95,74549.94734230325
96,-20.70831870619535
97,0.0
98,20.70831870619535
99,-0.2972033165788812
100,-74549.94734230325
101,20.70831870619535
102,20.70831870619535
103,0.0
104,0.2972033165788812
105,74549.94734230325
106,0.0
107,0.0
108,0.0
109,0.0
110,0.0
115,21.98581768656889
116,21.98581768656889
117,0.0
118,0.31553782935511965
119,79148.94367164801
120,-21.98581768656889
121,0.0
122,21.98581768656889
123,-0.31553782935511965
124,-79148.94367164801
125,21.98581768656889
126,21.98581768656889
127,0.0
128,0.31553782935511965
129,79148.94367164801
130,0.0
131,0.0
132,0.0
133,0.0
134,0.0
139,21.98581768656889
140,21.98581768656889
141,0.0
142,0.31553782935511965
143,79148.94367164801
144,-21.98581768656889
145,0.0
146,21.98581768656889
147,-0.31553782935511965
148,-79148.94367164801
149,21.98581768656889
150,21.98581768656889
151,0.0
152,0.31553782935511965
153,79148.94367164801
154,0.0
155,0.0
156,0.0
157,0.0
158,0.0
163,0.6535439846556352
164,0.6535439846556352
165,0.0
166,0.0028138755616851086
167,2352.7583447602865
168,0.4736193124681764
169,0.4736193124681764
170,0.0
171,0.0020391983404124403
172,1705.0295248854352
173,0.08996233609372942
174,0.08996233609372942
175,0.0
176,0.0003873386106363341
177,323.8644099374259
178,-1.1271632971238117
179,0.0
180,1.1271632971238117
181,-0.004853073902097549
182,-4057.787869645722
187,-86.1462024770425
188,0.0
189,86.1462024770425
190,-0.37090800248104905
191,-310126.328917353
192,86.1462024770425
193,86.1462024770425
194,0.0
195,0.37090800248104905
196,310126.328917353
197,-86.1462024770425
198,0.0
199,86.1462024770425
200,-0.37090800248104905
201,-310126.328917353
202,0.0
203,0.0
204,0.0
205,0.0
206,0.0
207,-18.21151597531101
208,-18.21110501852221
209,-18.21016388724682
210,-0.02607941406843839
211,-0.02613138576596385
212,-18.20881179918264
2,1,12,21, 0, 4, 0.00,60.00,WinterDesignDay
7,-15.5
8,9.625
9,9.25
49,0.0
53,-0.10273656503417428
54,0.0
55,0.10273656503417428
56,1.2120764468744092
57,1.2120764468744092
58,0.0
59,0.0
60,369.8516341230274
61,4363.475208747873
62,0.0
67,20.710486264822734
68,20.710486264822734
69,0.0
70,0.29723442512139875
71,74557.75055336184
72,-20.710486264822734
73,0.0
74,20.710486264822734
75,-0.29723442512139875
76,-74557.75055336184
77,20.710486264822734
78,20.710486264822734
79,0.0
80,0.29723442512139875
81,74557.75055336184
82,0.0
83,0.0
84,0.0
85,0.0
86,0.0
91,20.710486264822734
92,20.710486264822734
93,0.0
94,0.29723442512139875
95,74557.75055336184
96,-20.710486264822734
97,0.0
98,20.710486264822734
99,-0.29723442512139875
100,-74557.75055336184
101,20.710486264822734
102,20.710486264822734
103,0.0
104,0.29723442512139875
105,74557.75055336184
106,0.0
107,0.0
108,0.0
109,0.0
110,0.0
115,21.987987405230243
116,21.987987405230243
117,0.0
118,0.31556896889818664
119,79156.75465882887
120,-21.987987405230243
121,0.0
122,21.987987405230243
123,-0.31556896889818664
124,-79156.75465882887
125,21.987987405230243
126,21.987987405230243
127,0.0
128,0.31556896889818664
129,79156.75465882887
130,0.0
131,0.0
132,0.0
133,0.0
134,0.0
139,21.987987405230243
140,21.987987405230243
141,0.0
142,0.31556896889818664
143,79156.75465882887
144,-21.987987405230243
145,0.0
146,21.987987405230243
147,-0.31556896889818664
148,-79156.75465882887
149,21.987987405230243
150,21.987987405230243
151,0.0
152,0.31556896889818664
153,79156.75465882887
154,0.0
155,0.0
156,0.0
157,0.0
158,0.0
163,0.6432097347613717
164,0.6432097347613717
165,0.0
166,0.00276938078565081
167,2315.5550451409376
168,0.46613014707885864
169,0.46613014707885864
170,0.0
171,0.0020069532582738248
172,1678.0685294838909
173,0.08853979384125646
174,0.08853979384125646
175,0.0
176,0.0003812137636884927
177,318.74325782852327
178,-1.1093398818402302
179,0.0
180,1.1093398818402302
181,-0.004776334043924635
182,-3993.623574624829
187,-86.14289363990152
188,0.0
189,86.14289363990152
190,-0.3708937560704214
191,-310114.4171036454
192,86.14289363990152
193,86.14289363990152
194,0.0
195,0.3708937560704214
196,310114.4171036454
197,-86.14289363990152
198,0.0
199,86.14289363990152
200,-0.3708937560704214
201,-310114.4171036454
202,0.0
203,0.0
204,0.0
205,0.0
206,0.0
207,-18.21159461611652
208,-18.21118478494785
209,-18.210243554909237
210,-0.025667495167090326
211,-0.025718647097598767
212,-18.208892493701953
2,1,12,21, 0, 5, 0.00,60.00,WinterDesignDay
7,-15.5
8,10.0
9,10.0
49,0.0
53,-0.10111344869379835
54,0.0
55,0.10111344869379835
56,1.1929117238088303
57,1.1929117238088303
58,0.0
59,0.0
60,364.00841529767405
61,4294.482205711789
62,0.0
67,20.712619560989964
68,20.712619560989964
69,0.0
70,0.2972650419331806
71,74565.43041956387
72,-20.712619560989964
73,0.0
74,20.712619560989964
75,-0.2972650419331806
76,-74565.43041956387
77,20.712619560989964
78,20.712619560989964
79,0.0
80,0.2972650419331806
81,74565.43041956387
82,0.0
83,0.0
84,0.0
85,0.0
86,0.0
91,20.712619560989964
92,20.712619560989964
93,0.0
94,0.2972650419331806
95,74565.43041956387
96,-20.712619560989964
97,0.0
98,20.712619560989964
99,-0.2972650419331806
100,-74565.43041956387
101,20.712619560989964
102,20.712619560989964
103,0.0
104,0.2972650419331806
105,74565.43041956387
106,0.0
107,0.0
108,0.0
109,0.0
110,0.0
115,21.99012282735363
116,21.99012282735363
117,0.0
118,0.3155996162214374
119,79164.44217847308
120,-21.99012282735363
121,0.0
122,21.99012282735363
123,-0.3155996162214374
124,-79164.44217847308
125,21.99012282735363
126,21.99012282735363
127,0.0
128,0.3155996162214374
129,79164.44217847308
130,0.0
131,0.0
132,0.0
133,0.0
134,0.0
139,21.99012282735363
140,21.99012282735363
141,0.0
142,0.3155996162214374
143,79164.44217847308
144,-21.99012282735363
145,0.0
146,21.99012282735363
147,-0.3155996162214374
148,-79164.44217847308
149,21.99012282735363
150,21.99012282735363
151,0.0
152,0.3155996162214374
153,79164.44217847308
154,0.0
155,0.0
156,0.0
157,0.0
158,0.0
163,0.6330388811796045
164,0.6330388811796045
165,0.0
166,0.0027255895229245652
167,2278.9399722465764
168,0.45875939393542553
169,0.45875939393542553
170,0.0
171,0.001975218007657986
172,1651.5338181675318
173,0.08713974362208951
174,0.08713974362208951
175,0.0
176,0.00037518575763328954
177,313.7030770395222
178,-1.0917982751150301
179,0.0
180,1.0917982751150301
181,-0.004700807530582551
182,-3930.473790414108
187,-86.1396371065606
188,0.0
189,86.1396371065606
190,-0.3708797348571612
191,-310102.69358361815
192,86.1396371065606
193,86.1396371065606
194,0.0
195,0.3708797348571612
196,310102.69358361815
197,-86.1396371065606
198,0.0
199,86.1396371065606
200,-0.3708797348571612
201,-310102.69358361815
202,0.0
203,0.0
204,0.0
205,0.0
206,0.0
207,-18.211672014769487
208,-18.21126417379125
209,-18.21032196364397
210,-0.02526207345439202
211,-0.025312418497003056
212,-18.208971912518447
2,1,12,21, 0, 6, 0.00,60.00,WinterDesignDay
7,-15.5
8,10.0
9,10.0
49,0.0
53,-0.09951594810058495
54,0.0
55,0.09951594810058495
56,1.1740499700856795
57,1.1740499700856795
58,0.0
59,0.0
60,358.2574131621058
61,4226.579892308446
62,0.0
67,20.714719136007798
68,20.714719136007798
69,0.0
70,0.2972951747830541
71,74572.98888962808
72,-20.714719136007798
73,0.0
74,20.714719136007798
75,-0.2972951747830541
76,-74572.98888962808
77,20.714719136007798
78,20.714719136007798
79,0.0
80,0.2972951747830541
81,74572.98888962808
82,0.0
83,0.0
84,0.0
85,0.0
86,0.0
91,20.714719136007798
92,20.714719136007798
93,0.0
94,0.2972951747830541
95,74572.98888962808
96,-20.714719136007798
97,0.0
98,20.714719136007798
99,-0.2972951747830541
100,-74572.98888962808
101,20.714719136007798
102,20.714719136007798
103,0.0
104,0.2972951747830541
105,74572.98888962808
106,0.0
107,0.0
108,0.0
109,0.0
110,0.0
115,21.992224494787138
116,21.992224494787138
117,0.0
118,0.31562977910141066
119,79172.00818123369
120,-21.992224494787138
121,0.0
122,21.992224494787138
123,-0.31562977910141066
124,-79172.00818123369
125,21.992224494787138
126,21.992224494787138
127,0.0
128,0.31562977910141066
129,79172.00818123369
130,0.0
131,0.0
132,0.0
133,0.0
134,0.0
139,21.992224494787138
140,21.992224494787138
141,0.0
142,0.31562977910141066
143,79172.00818123369
144,-21.992224494787138
145,0.0
146,21.992224494787138
147,-0.31562977910141066
148,-79172.00818123369
149,21.992224494787138
150,21.992224494787138
151,0.0
152,0.31562977910141066
153,79172.00818123369
154,0.0
155,0.0
156,0.0
157,0.0
158,0.0
163,0.6230288409432123
164,0.6230288409432123
165,0.0
166,0.002682490652375691
167,2242.9038273955643
168,0.45150518104187853
169,0.45150518104187853
170,0.0
171,0.001943984528566034
172,1625.4186517507624
173,0.08576182995066689
174,0.08576182995066689
175,0.0
176,0.00036925306190482843
177,308.74258782240076
178,-1.0745340219850907
179,0.0
180,1.0745340219850907
181,-0.004626475180941725
182,-3868.3224791463267
187,-86.13643205063366
188,0.0
189,86.13643205063366
190,-0.37086593528321
191,-310091.1553822812
192,86.13643205063366
193,86.13643205063366
194,0.0
195,0.37086593528321
196,310091.1553822812
197,-86.13643205063366
198,0.0
199,86.13643205063366
200,-0.37086593528321
201,-310091.1553822812
202,0.0
203,0.0
204,0.0
205,0.0
206,0.0
207,-18.211748190863606
208,-18.21133849460127
209,-18.210399133328124
210,-0.024863046761702368
211,-0.024912597623216955
212,-18.209050075792646
2,1,12,21, 0, 7, 0.00,60.00,WinterDesignDay
7,-15.5
8,10.0
9,10.0
49,0.0
53,-0.0979436599899941
54,0.0
55,0.0979436599899941
56,1.1554863981360874
57,1.1554863981360874
58,0.0
59,0.0
60,352.59717596397877
61,4159.751033289915
62,0.0
67,20.716785522645527
68,20.716785522645527
69,0.0
70,0.2973248313172605
71,74580.42788152391